<?xml version="1.0"?>
 <VTKFile type="ImageData" version="0.1" byte_order="LittleEndian">
   <ImageData WholeExtent=" 0 2 0 2 0 2 " Origin="  -1.0 -1.0 -1.0  " Spacing="1.0 1.0 1.0 ">
   <Piece Extent="0 2 0 2 0 2 ">
   <PointData Scalars="scalars">
   <DataArray Name="vectors" type="Float64" NumberOfComponents="3" Format="ascii">
  0.484877E-07 -0.421046E-07 -0.254530E-09
  0.705729E-07 -0.534268E-07 -0.253128E-09
  0.937289E-07 -0.613884E-07 -0.141228E-09
  0.114291E-06 -0.628197E-07  0.518169E-10
  0.129409E-06 -0.552542E-07  0.222921E-09
  0.138315E-06 -0.381425E-07  0.253639E-09
  0.142101E-06 -0.136440E-07  0.111609E-09
  0.142101E-06  0.136440E-07 -0.111609E-09
  0.138315E-06  0.381425E-07 -0.253639E-09
  0.129409E-06  0.552542E-07 -0.222921E-09
  0.114291E-06  0.628197E-07 -0.518169E-10
  0.937289E-07  0.613884E-07  0.141228E-09
  0.705729E-07  0.534268E-07  0.253128E-09
  0.484877E-07  0.421046E-07  0.254530E-09
  0.303257E-07  0.302737E-07  0.185930E-09
  0.172640E-07  0.199082E-07  0.103888E-09
  0.895477E-08  0.119688E-07  0.428103E-10
  0.423700E-08  0.656755E-08  0.103328E-10
  0.183019E-08  0.328278E-08 -0.161298E-11
  0.721761E-09  0.149202E-08 -0.358231E-11
  0.259681E-09  0.615605E-09 -0.247919E-11
  0.851204E-10  0.230221E-09 -0.122282E-11
  0.905933E-10 -0.336605E-09  0.263408E-11
  0.288318E-09 -0.924849E-09  0.621352E-11
  0.830600E-09 -0.229437E-08  0.122136E-10
  0.216683E-08 -0.513619E-08  0.188851E-10
  0.511943E-08 -0.103709E-07  0.191562E-10

    </DataArray>
    </PointData>
    <CellData Scalars="foo">

0.0 0.0 0.0 0.0 0.0 0.0 0.0 0.0 0.0
0.0 0.0 0.0 0.0 0.0 0.0 0.0 0.0 0.0
0.0 0.0 0.0 0.0 0.0 0.0 0.0 0.0 0.0

    </CellData>
    </Piece>
    </ImageData>
 </VTKFile>
