<?xml version="1.0"?>
 <VTKFile type="ImageData" version="0.1" byte_order="LittleEndian">
   <ImageData WholeExtent="           0          36           0          41           0          16 " Origin="  -8.5665899999999997       -10.236100000000000       -4.0000000000000000      " Spacing="  0.50000000000000000       0.50000000000000000       0.50000000000000000      ">
   <Piece Extent="           0          36           0          41           0          16 ">
   <PointData Scalars="scalars">
   <DataArray Name="vectors" type="Float64" NumberOfComponents="3" Format="ascii">
 -0.217053E-08  0.171725E-08  0.259918E-11
 -0.301915E-08  0.224469E-08  0.489851E-11
 -0.415981E-08  0.289556E-08  0.921666E-11
 -0.567672E-08  0.368323E-08  0.167901E-10
 -0.766775E-08  0.461268E-08  0.290843E-10
 -0.102386E-07  0.567298E-08  0.473899E-10
 -0.134900E-07  0.682783E-08  0.720663E-10
 -0.174984E-07  0.800691E-08  0.101393E-09
 -0.222898E-07  0.910063E-08  0.130334E-09
 -0.278108E-07  0.996340E-08  0.149699E-09
 -0.339044E-07  0.104283E-07  0.146318E-09
 -0.402974E-07  0.103358E-07  0.105889E-09
 -0.466104E-07  0.956792E-08  0.164753E-10
 -0.523897E-07  0.808281E-08 -0.125546E-09
 -0.571603E-07  0.593682E-08 -0.310916E-09
 -0.604888E-07  0.328564E-08 -0.515859E-09
 -0.620464E-07  0.362553E-09 -0.705799E-09
 -0.616567E-07 -0.255904E-08 -0.843656E-09
 -0.593240E-07 -0.520934E-08 -0.900598E-09
 -0.552377E-07 -0.736178E-08 -0.865023E-09
 -0.497517E-07 -0.886256E-08 -0.746095E-09
 -0.433389E-07 -0.964768E-08 -0.570389E-09
 -0.365266E-07 -0.974605E-08 -0.373220E-09
 -0.298205E-07 -0.926721E-08 -0.188265E-09
 -0.236347E-07 -0.837579E-08 -0.398856E-10
 -0.182454E-07 -0.725408E-08  0.610138E-10
 -0.137777E-07 -0.606788E-08  0.115431E-09
 -0.102260E-07 -0.494094E-08  0.132423E-09
 -0.749503E-08 -0.394592E-08  0.124386E-09
 -0.544584E-08 -0.311010E-08  0.103240E-09
 -0.393231E-08 -0.242960E-08  0.780936E-10
 -0.282456E-08 -0.188467E-08  0.547055E-10
 -0.201771E-08 -0.145132E-08  0.358268E-10
 -0.143188E-08 -0.110765E-08  0.220757E-10
 -0.100802E-08 -0.835965E-09  0.128630E-10
 -0.702892E-09 -0.622543E-09  0.712132E-11
 -0.484783E-09 -0.456595E-09  0.377202E-11
 -0.321948E-08  0.267227E-08  0.287061E-11
 -0.456859E-08  0.356408E-08  0.677785E-11
 -0.644056E-08  0.470500E-08  0.147598E-10
 -0.901566E-08  0.613994E-08  0.294330E-10
 -0.125146E-07  0.790163E-08  0.538901E-10
 -0.171902E-07  0.999315E-08  0.906554E-10
 -0.233026E-07  0.123645E-07  0.139861E-09
 -0.310776E-07  0.148882E-07  0.196315E-09
 -0.406449E-07  0.173430E-07  0.246890E-09
 -0.519692E-07  0.194157E-07  0.268042E-09
 -0.647855E-07  0.207327E-07  0.227246E-09
 -0.785615E-07  0.209219E-07  0.889724E-10
 -0.925052E-07  0.196952E-07 -0.174051E-09
 -0.105628E-06  0.169287E-07 -0.566474E-09
 -0.116853E-06  0.127132E-07 -0.105874E-08
 -0.125156E-06  0.735665E-08 -0.158423E-08
 -0.129704E-06  0.133785E-08 -0.205008E-08
 -0.129970E-06 -0.477269E-08 -0.236062E-08
 -0.125820E-06 -0.103990E-07 -0.244609E-08
 -0.117549E-06 -0.150363E-07 -0.228548E-08
 -0.105868E-06 -0.183123E-07 -0.191359E-08
 -0.918271E-07 -0.200346E-07 -0.140937E-08
 -0.766715E-07 -0.202172E-07 -0.870553E-09
 -0.616480E-07 -0.190757E-07 -0.385457E-09
 -0.478105E-07 -0.169793E-07 -0.124808E-10
 -0.358753E-07 -0.143662E-07  0.226966E-09
 -0.261686E-07 -0.116467E-07  0.343117E-09
 -0.186686E-07 -0.912926E-08  0.365179E-09
 -0.131143E-07 -0.698764E-08  0.328417E-09
 -0.913070E-08 -0.527369E-08  0.264087E-09
 -0.633315E-08 -0.395600E-08  0.194752E-09
 -0.438933E-08 -0.296388E-08  0.133500E-09
 -0.304198E-08 -0.222051E-08  0.857343E-10
 -0.210611E-08 -0.166063E-08  0.518507E-10
 -0.145393E-08 -0.123558E-08  0.296451E-10
 -0.998571E-09 -0.911308E-09  0.160786E-10
 -0.680837E-09 -0.664170E-09  0.830427E-11
 -0.478532E-08  0.417820E-08  0.316401E-11
 -0.696305E-08  0.571580E-08  0.104592E-10
 -0.100958E-07  0.776263E-08  0.261608E-10
 -0.145667E-07  0.104428E-07  0.557891E-10
 -0.208670E-07  0.138668E-07  0.105628E-09
 -0.295849E-07  0.180905E-07  0.180242E-09
 -0.413589E-07  0.230593E-07  0.278254E-09
 -0.567892E-07  0.285453E-07  0.385220E-09
 -0.763010E-07  0.340995E-07  0.466531E-09
 -0.999785E-07  0.390478E-07  0.462888E-09
 -0.127404E-06  0.425546E-07  0.293788E-09
 -0.157549E-06  0.437622E-07 -0.126553E-09
 -0.188767E-06  0.419803E-07 -0.859613E-09
 -0.218909E-06  0.368684E-07 -0.190690E-08
 -0.245545E-06  0.285504E-07 -0.318124E-08
 -0.266263E-06  0.176160E-07 -0.450276E-08
 -0.278974E-06  0.502132E-08 -0.562975E-08
 -0.282194E-06 -0.806755E-08 -0.632180E-08
 -0.275275E-06 -0.204303E-07 -0.641367E-08
 -0.258563E-06 -0.309252E-07 -0.587132E-08
 -0.233451E-06 -0.386134E-07 -0.480544E-08
 -0.202263E-06 -0.428919E-07 -0.343581E-08
 -0.167943E-06 -0.436178E-07 -0.202162E-08
 -0.133569E-06 -0.411638E-07 -0.787202E-09
 -0.101824E-06 -0.363475E-07  0.128977E-09
 -0.745761E-07 -0.302302E-07  0.688019E-09
 -0.526990E-07 -0.238540E-07  0.931418E-09
 -0.361569E-07 -0.180188E-07  0.945002E-09
 -0.242807E-07 -0.131748E-07  0.823447E-09
 -0.161021E-07 -0.944368E-08  0.646003E-09
 -0.106338E-07 -0.672030E-08  0.466567E-09
 -0.703733E-08 -0.479539E-08  0.313984E-09
 -0.468227E-08 -0.344904E-08  0.198355E-09
 -0.313270E-08 -0.250013E-08  0.118142E-09
 -0.210369E-08 -0.181935E-08  0.665459E-10
 -0.141386E-08 -0.132188E-08  0.355362E-10
 -0.948131E-09 -0.953973E-09  0.180371E-10
 -0.714649E-08  0.658506E-08  0.433242E-11
 -0.107143E-07  0.928562E-08  0.189593E-10
 -0.160466E-07  0.130302E-07  0.509856E-10
 -0.239490E-07  0.181323E-07  0.111669E-09
 -0.354923E-07  0.248992E-07  0.213191E-09
 -0.520039E-07  0.335427E-07  0.363460E-09
 -0.749877E-07  0.440464E-07  0.554557E-09
 -0.105938E-06  0.560128E-07  0.747149E-09
 -0.146040E-06  0.685370E-07  0.853198E-09
 -0.195791E-06  0.801777E-07  0.726230E-09
 -0.254606E-06  0.890874E-07  0.171596E-09
 -0.320538E-06  0.933216E-07 -0.101147E-08
 -0.390197E-06  0.912640E-07 -0.295652E-08
 -0.458953E-06  0.820355E-07 -0.564216E-08
 -0.521384E-06  0.657364E-07 -0.882620E-08
 -0.571893E-06  0.434388E-07 -0.120446E-07
 -0.605386E-06  0.169737E-07 -0.146963E-07
 -0.617924E-06 -0.113540E-07 -0.162025E-07
 -0.607338E-06 -0.390032E-07 -0.161862E-07
 -0.573733E-06 -0.633856E-07 -0.146029E-07
 -0.519781E-06 -0.821066E-07 -0.117648E-07
 -0.450593E-06 -0.933426E-07 -0.824372E-08
 -0.373042E-06 -0.962900E-07 -0.469326E-08
 -0.294572E-06 -0.914681E-07 -0.166229E-08
 -0.221827E-06 -0.806561E-07  0.528489E-09
 -0.159517E-06 -0.664171E-07  0.181284E-08
 -0.109897E-06 -0.513914E-07  0.232174E-08
 -0.729397E-07 -0.376604E-07  0.228646E-08
 -0.470107E-07 -0.264138E-07  0.194794E-08
 -0.297189E-07 -0.179735E-07  0.149912E-08
 -0.186297E-07 -0.120559E-07  0.106428E-08
 -0.116958E-07 -0.809764E-08  0.705261E-09
 -0.740520E-08 -0.551099E-08  0.439249E-09
 -0.474303E-08 -0.381853E-08  0.258275E-09
 -0.307114E-08 -0.268747E-08  0.143728E-09
 -0.200457E-08 -0.190834E-08  0.758374E-10
 -0.131396E-08 -0.135669E-08  0.380035E-10
 -0.107354E-07  0.104791E-07  0.869887E-11
 -0.166460E-07  0.152893E-07  0.389148E-10
 -0.258249E-07  0.222292E-07  0.104449E-09
 -0.399331E-07  0.320424E-07  0.227244E-09
 -0.612429E-07  0.455057E-07  0.430554E-09
 -0.926608E-07  0.632354E-07  0.724603E-09
 -0.137588E-06  0.853889E-07  0.108158E-08
 -0.199548E-06  0.111303E-06  0.139874E-08
 -0.281557E-06  0.139179E-06  0.145952E-08
 -0.385267E-06  0.165984E-06  0.914358E-09
 -0.510065E-06  0.187709E-06 -0.688785E-09
 -0.652345E-06  0.200044E-06 -0.379833E-08
 -0.805231E-06  0.199309E-06 -0.868140E-08
 -0.958880E-06  0.183344E-06 -0.152213E-07
 -0.110138E-05  0.151994E-06 -0.227839E-07
 -0.122002E-05  0.107054E-06 -0.302404E-07
 -0.130278E-05  0.518298E-07 -0.361873E-07
 -0.133985E-05 -0.932198E-08 -0.393183E-07
 -0.132512E-05 -0.712332E-07 -0.388239E-07
 -0.125765E-05 -0.128069E-06 -0.346722E-07
 -0.114257E-05 -0.173789E-06 -0.276505E-07
 -0.991059E-06 -0.203196E-06 -0.191378E-07
 -0.818843E-06 -0.213353E-06 -0.106865E-07
 -0.643327E-06 -0.204673E-06 -0.357944E-08
 -0.480231E-06 -0.180981E-06  0.146135E-08
 -0.340786E-06 -0.148378E-06  0.432902E-08
 -0.230407E-06 -0.113407E-06  0.538096E-08
 -0.149072E-06 -0.813367E-07  0.519546E-08
 -0.929404E-07 -0.552306E-07  0.435153E-08
 -0.563788E-07 -0.359487E-07  0.329638E-08
 -0.336727E-07 -0.227972E-07  0.230586E-08
 -0.200506E-07 -0.143593E-07  0.150710E-08
 -0.120333E-07 -0.915232E-08  0.926945E-09
 -0.732939E-08 -0.597876E-08  0.538766E-09
 -0.454093E-08 -0.401545E-08  0.296699E-09
 -0.285684E-08 -0.275737E-08  0.155025E-09
 -0.181819E-08 -0.191706E-08  0.769277E-10
 -0.162045E-07  0.168287E-07  0.213359E-10
 -0.260447E-07  0.254600E-07  0.830166E-10
 -0.418954E-07  0.383801E-07  0.214088E-09
 -0.670898E-07  0.572684E-07  0.456274E-09
 -0.106312E-06  0.839613E-07  0.849561E-09
 -0.165704E-06  0.120049E-06  0.140115E-08
 -0.252657E-06  0.166222E-06  0.202796E-08
 -0.375104E-06  0.221454E-06  0.247486E-08
 -0.540216E-06  0.282261E-06  0.223193E-08
 -0.752580E-06  0.342412E-06  0.502514E-09
 -0.101214E-05  0.393429E-06 -0.370729E-08
 -0.131246E-05  0.426007E-06 -0.113280E-07
 -0.163979E-05  0.432012E-06 -0.228153E-07
 -0.197353E-05  0.406332E-06 -0.377300E-07
 -0.228792E-05  0.347821E-06 -0.545099E-07
 -0.255478E-05  0.259075E-06 -0.706101E-07
 -0.274672E-05  0.145577E-06 -0.830319E-07
 -0.284060E-05  0.151238E-07 -0.890909E-07
 -0.282121E-05 -0.121999E-06 -0.871883E-07
 -0.268480E-05 -0.252738E-06 -0.773470E-07
 -0.244171E-05 -0.362179E-06 -0.613150E-07
 -0.211638E-05 -0.436412E-06 -0.421295E-07
 -0.174395E-05 -0.466600E-06 -0.232345E-07
 -0.136357E-05 -0.452211E-06 -0.748604E-08
 -0.101053E-05 -0.401472E-06  0.353445E-08
 -0.709812E-06 -0.328628E-06  0.965356E-08
 -0.473236E-06 -0.249326E-06  0.117469E-07
 -0.300455E-06 -0.176307E-06  0.111627E-07
 -0.182685E-06 -0.117043E-06  0.921268E-08
 -0.107282E-06 -0.736899E-07  0.687991E-08
 -0.615442E-07 -0.446407E-07  0.474662E-08
 -0.349556E-07 -0.265270E-07  0.306214E-08
 -0.199243E-07 -0.158148E-07  0.186082E-08
 -0.115211E-07 -0.965726E-08  0.106992E-08
 -0.679907E-08 -0.611360E-08  0.583482E-09
 -0.409894E-08 -0.401165E-08  0.302240E-09
 -0.251745E-08 -0.270262E-08  0.148772E-09
 -0.244972E-07  0.271961E-07  0.516029E-10
 -0.408300E-07  0.426740E-07  0.173431E-09
 -0.680359E-07  0.666211E-07  0.426417E-09
 -0.112600E-06  0.102668E-06  0.885270E-09
 -0.183844E-06  0.154931E-06  0.161347E-08
 -0.294282E-06  0.227202E-06  0.259443E-08
 -0.459353E-06  0.321583E-06  0.360648E-08
 -0.696170E-06  0.436720E-06  0.404964E-08
 -0.102098E-05  0.566132E-06  0.278176E-08
 -0.144536E-05  0.697436E-06 -0.191285E-08
 -0.197172E-05  0.813255E-06 -0.120698E-07
 -0.258909E-05  0.894069E-06 -0.294156E-07
 -0.327055E-05  0.922327E-06 -0.544895E-07
 -0.397354E-05  0.886208E-06 -0.858735E-07
 -0.464319E-05  0.781390E-06 -0.119986E-06
 -0.521817E-05  0.610454E-06 -0.151650E-06
 -0.563790E-05  0.381386E-06 -0.175236E-06
 -0.585048E-05  0.107403E-06 -0.185934E-06
 -0.582115E-05 -0.191187E-06 -0.180879E-06
 -0.554074E-05 -0.485253E-06 -0.160036E-06
 -0.503162E-05 -0.738883E-06 -0.126632E-06
 -0.434766E-05 -0.917020E-06 -0.866557E-07
 -0.356590E-05 -0.996296E-06 -0.472371E-07
 -0.277105E-05 -0.973483E-06 -0.144737E-07
 -0.203799E-05 -0.866662E-06  0.822624E-08
 -0.141825E-05 -0.708397E-06  0.205358E-07
 -0.934774E-06 -0.534592E-06  0.244193E-07
 -0.584948E-06 -0.374377E-06  0.228261E-07
 -0.349075E-06 -0.244745E-06  0.185600E-07
 -0.200067E-06 -0.150570E-06  0.136631E-07
 -0.111243E-06 -0.882036E-07  0.929688E-08
 -0.607915E-07 -0.500411E-07  0.591922E-08
 -0.331275E-07 -0.281228E-07  0.355354E-08
 -0.182465E-07 -0.160584E-07  0.202099E-08
 -0.102568E-07 -0.951582E-08  0.109172E-08
 -0.590921E-08 -0.590437E-08  0.560795E-09
 -0.348760E-08 -0.381634E-08  0.274046E-09
 -0.368950E-07  0.440134E-07  0.114498E-09
 -0.636892E-07  0.715246E-07  0.344553E-09
 -0.109680E-06  0.115344E-06  0.811354E-09
 -0.187035E-06  0.182999E-06  0.164141E-08
 -0.313624E-06  0.283288E-06  0.292303E-08
 -0.513971E-06  0.424751E-06  0.455961E-08
 -0.819142E-06  0.612946E-06  0.600866E-08
 -0.126473E-05  0.846804E-06  0.593324E-08
 -0.188620E-05  0.111502E-05  0.190932E-08
 -0.271133E-05  0.139410E-05 -0.953020E-08
 -0.375045E-05  0.164964E-05 -0.321883E-07
 -0.498645E-05  0.184175E-05 -0.687535E-07
 -0.636775E-05  0.193304E-05 -0.119054E-06
 -0.780740E-05  0.189612E-05 -0.179000E-06
 -0.918950E-05  0.171717E-05 -0.241067E-06
 -0.103822E-04  0.139496E-05 -0.296212E-06
 -0.112543E-04  0.938895E-06 -0.335919E-06
 -0.116936E-04  0.370902E-06 -0.353286E-06
 -0.116264E-04 -0.267968E-06 -0.343524E-06
 -0.110358E-04 -0.912391E-06 -0.305265E-06
 -0.997492E-05 -0.147816E-05 -0.242627E-06
 -0.856382E-05 -0.188189E-05 -0.165932E-06
 -0.696899E-05 -0.206803E-05 -0.891639E-07
 -0.536749E-05 -0.202869E-05 -0.250809E-07
 -0.390955E-05 -0.180510E-05  0.189499E-07
 -0.269285E-05 -0.147030E-05  0.421627E-07
 -0.175536E-05 -0.110317E-05  0.486848E-07
 -0.108495E-05 -0.766313E-06  0.446357E-07
 -0.638056E-06 -0.495354E-06  0.356965E-07
 -0.359080E-06 -0.299884E-06  0.258759E-07
 -0.195050E-06 -0.171606E-06  0.173507E-07
 -0.103472E-06 -0.941213E-07  0.108954E-07
 -0.543745E-07 -0.504840E-07  0.645803E-08
 -0.287242E-07 -0.271781E-07  0.363114E-08
 -0.154420E-07 -0.150880E-07  0.194217E-08
 -0.851138E-08 -0.880164E-08  0.989358E-09
 -0.482052E-08 -0.541196E-08  0.480046E-09
 -0.549851E-07  0.708920E-07  0.232161E-09
 -0.980672E-07  0.118995E-06  0.644399E-09
 -0.173993E-06  0.197575E-06  0.146397E-08
 -0.304709E-06  0.321607E-06  0.289108E-08
 -0.523124E-06  0.509119E-06  0.502192E-08
 -0.875501E-06  0.778483E-06  0.754671E-08
 -0.142219E-05  0.114333E-05  0.922701E-08
 -0.223501E-05  0.160543E-05  0.723101E-08
 -0.338943E-05  0.214717E-05 -0.332193E-08
 -0.495011E-05  0.272652E-05 -0.289701E-07
 -0.695012E-05  0.327802E-05 -0.760436E-07
 -0.936743E-05  0.372146E-05 -0.147415E-06
 -0.121058E-04  0.397673E-05 -0.239399E-06
 -0.149887E-04  0.397874E-05 -0.341313E-06
 -0.177716E-04  0.368610E-05 -0.439091E-06
 -0.201720E-04  0.308205E-05 -0.520765E-06
 -0.219087E-04  0.217435E-05 -0.578882E-06
 -0.227453E-04  0.100297E-05 -0.607416E-06
 -0.225347E-04 -0.343548E-06 -0.597704E-06
 -0.212588E-04 -0.171759E-05 -0.540781E-06
 -0.190509E-04 -0.292781E-05 -0.436402E-06
 -0.161831E-04 -0.378757E-05 -0.299857E-06
 -0.130107E-04 -0.417758E-05 -0.158314E-06
 -0.989178E-05 -0.408823E-05 -0.388610E-07
 -0.711082E-05 -0.361695E-05  0.424169E-07
 -0.483534E-05 -0.292440E-05  0.836649E-07
 -0.311325E-05 -0.217625E-05  0.933204E-07
 -0.190106E-05 -0.149850E-05  0.836444E-07
 -0.110400E-05 -0.959145E-06  0.656472E-07
 -0.612503E-06 -0.573644E-06  0.467856E-07
 -0.326970E-06 -0.322883E-06  0.308798E-07
 -0.169673E-06 -0.172930E-06  0.191072E-07
 -0.867232E-07 -0.896263E-07  0.111727E-07
 -0.443040E-07 -0.460381E-07  0.620610E-08
 -0.229313E-07 -0.241252E-07  0.328464E-08
 -0.121433E-07 -0.132394E-07  0.165852E-08
 -0.661081E-08 -0.770731E-08  0.798932E-09
 -0.804828E-07  0.112882E-06  0.431975E-09
 -0.147845E-06  0.195069E-06  0.113155E-08
 -0.269348E-06  0.332323E-06  0.249657E-08
 -0.482925E-06  0.553252E-06  0.481916E-08
 -0.846752E-06  0.893369E-06  0.814015E-08
 -0.144488E-05  0.139078E-05  0.116497E-07
 -0.239085E-05  0.207744E-05  0.126740E-07
 -0.382596E-05  0.296601E-05  0.547704E-08
 -0.590779E-05  0.403468E-05 -0.193110E-07
 -0.878379E-05  0.521446E-05 -0.732098E-07
 -0.125480E-04  0.638545E-05 -0.165202E-06
 -0.171860E-04  0.738729E-05 -0.294795E-06
 -0.225237E-04  0.804381E-05 -0.447289E-06
 -0.282041E-04  0.819423E-05 -0.597483E-06
 -0.337094E-04  0.771971E-05 -0.723156E-06
 -0.384310E-04  0.655901E-05 -0.818830E-06
 -0.417676E-04  0.471926E-05 -0.894090E-06
 -0.432311E-04  0.229440E-05 -0.952813E-06
 -0.425470E-04 -0.507436E-06 -0.973635E-06
 -0.397359E-04 -0.335230E-05 -0.917852E-06
 -0.351449E-04 -0.582317E-05 -0.763145E-06
 -0.293923E-04 -0.753018E-05 -0.530048E-06
 -0.232259E-04 -0.824512E-05 -0.274680E-06
 -0.173434E-04 -0.798225E-05 -0.565946E-07
 -0.122487E-04 -0.697500E-05  0.892797E-07
 -0.819210E-05 -0.556832E-05  0.159470E-06
 -0.519626E-05 -0.409404E-05  0.171664E-06
 -0.313115E-05 -0.278791E-05  0.150094E-06
 -0.179643E-05 -0.176603E-05  0.115384E-06
 -0.984809E-06 -0.104508E-05  0.807314E-07
 -0.518816E-06 -0.580923E-06  0.523937E-07
 -0.264943E-06 -0.305929E-06  0.319168E-07
 -0.132698E-06 -0.154737E-06  0.183969E-07
 -0.660935E-07 -0.767441E-07  0.100878E-07
 -0.331908E-07 -0.383745E-07  0.527936E-08
 -0.169919E-07 -0.199323E-07  0.264075E-08
 -0.892819E-08 -0.109864E-07  0.126249E-08
 -0.114820E-06  0.176524E-06  0.742529E-09
 -0.216523E-06  0.312975E-06  0.186473E-08
 -0.403782E-06  0.545330E-06  0.401533E-08
 -0.739296E-06  0.926107E-06  0.757608E-08
 -0.132169E-05  0.152276E-05  0.123707E-07
 -0.229816E-05  0.241194E-05  0.165107E-07
 -0.387586E-05  0.366600E-05  0.144929E-07
 -0.632635E-05  0.533066E-05 -0.488244E-08
 -0.997228E-05  0.739504E-05 -0.589066E-07
 -0.151426E-04  0.975985E-05 -0.166671E-06
 -0.220844E-04  0.122141E-04 -0.338077E-06
 -0.308362E-04  0.144350E-04 -0.559690E-06
 -0.410958E-04  0.160221E-04 -0.789301E-06
 -0.521433E-04  0.165673E-04 -0.973364E-06
 -0.628781E-04  0.157437E-04 -0.108606E-05
 -0.719841E-04  0.133854E-04 -0.115921E-05
 -0.781779E-04  0.953736E-05 -0.126060E-05
 -0.804709E-04  0.447784E-05 -0.141974E-05
 -0.783978E-04 -0.127165E-05 -0.156972E-05
 -0.721695E-04 -0.696656E-05 -0.158050E-05
 -0.626835E-04 -0.117475E-04 -0.136599E-05
 -0.513312E-04 -0.148665E-04 -0.959642E-06
 -0.396436E-04 -0.159498E-04 -0.488947E-06
 -0.289152E-04 -0.151312E-04 -0.873476E-07
 -0.199606E-04 -0.129612E-04  0.172869E-06
 -0.130733E-04 -0.101551E-04  0.289507E-06
 -0.814252E-05 -0.734223E-05  0.301643E-06
 -0.483218E-05 -0.492847E-05  0.257071E-06
 -0.273764E-05 -0.308440E-05  0.193337E-06
 -0.148462E-05 -0.180593E-05  0.132678E-06
 -0.774059E-06 -0.993315E-06  0.846094E-07
 -0.390776E-06 -0.516584E-06  0.507170E-07
 -0.192967E-06 -0.256806E-06  0.288019E-07
 -0.943851E-07 -0.124186E-06  0.155816E-07
 -0.463364E-07 -0.599106E-07  0.805845E-08
 -0.230935E-07 -0.297240E-07  0.399076E-08
 -0.117766E-07 -0.155800E-07  0.189256E-08
 -0.158464E-06  0.269476E-06  0.118458E-08
 -0.305783E-06  0.488597E-06  0.288266E-08
 -0.582131E-06  0.868335E-06  0.607656E-08
 -0.108638E-05  0.150137E-05  0.111851E-07
 -0.197867E-05  0.251145E-05  0.174705E-07
 -0.350714E-05  0.404836E-05  0.208801E-07
 -0.603794E-05  0.627074E-05  0.105710E-07
 -0.100785E-04  0.931137E-05 -0.345904E-07
 -0.162725E-04  0.132206E-04 -0.145589E-06
 -0.253293E-04  0.178887E-04 -0.352678E-06
 -0.378527E-04  0.229603E-04 -0.661546E-06
 -0.540588E-04  0.277788E-04 -0.102612E-05
 -0.734494E-04  0.314165E-04 -0.134617E-05
 -0.945881E-04  0.328386E-04 -0.151933E-05
 -0.115149E-03  0.311905E-04 -0.153639E-05
 -0.132303E-03  0.260965E-04 -0.153753E-05
 -0.143344E-03  0.178215E-04 -0.172956E-05
 -0.146328E-03  0.723502E-05 -0.218114E-05
 -0.140590E-03 -0.433757E-05 -0.268807E-05
 -0.126988E-03 -0.152882E-04 -0.289144E-05
 -0.107760E-03 -0.239695E-04 -0.256821E-05
 -0.859356E-04 -0.291001E-04 -0.180519E-05
 -0.645082E-04 -0.302139E-04 -0.904016E-06
 -0.457115E-04 -0.278356E-04 -0.154612E-06
 -0.306916E-04 -0.232070E-04  0.307591E-06
 -0.196016E-04 -0.177410E-04  0.497554E-06
 -0.119482E-04 -0.125544E-04  0.503465E-06
 -0.696835E-05 -0.827770E-05  0.418153E-06
 -0.389521E-05 -0.510662E-05  0.307494E-06
 -0.209083E-05 -0.295578E-05  0.206906E-06
 -0.108109E-05 -0.160978E-05  0.129648E-06
 -0.541455E-06 -0.828823E-06  0.764753E-07
 -0.264917E-06 -0.406891E-06  0.427875E-07
 -0.128031E-06 -0.193261E-06  0.228331E-07
 -0.618665E-07 -0.908070E-07  0.116655E-07
 -0.302221E-07 -0.434550E-07  0.571716E-08
 -0.150489E-07 -0.218149E-07  0.268836E-08
 -0.210031E-06  0.399469E-06  0.175771E-08
 -0.413534E-06  0.738542E-06  0.417440E-08
 -0.801923E-06  0.133577E-05  0.862550E-08
 -0.152351E-05  0.234833E-05  0.154218E-07
 -0.282652E-05  0.399544E-05  0.226297E-07
 -0.511225E-05  0.656089E-05  0.221822E-07
 -0.900346E-05  0.103790E-04 -0.628809E-08
 -0.154140E-04  0.157885E-04 -0.101249E-06
 -0.255765E-04  0.230304E-04 -0.316784E-06
 -0.409482E-04  0.320678E-04 -0.699870E-06
 -0.628924E-04  0.423341E-04 -0.124294E-05
 -0.920870E-04  0.524961E-04 -0.183491E-05
 -0.127767E-03  0.604231E-04 -0.227000E-05
 -0.167137E-03  0.635780E-04 -0.237077E-05
 -0.205401E-03  0.598548E-04 -0.218883E-05
 -0.236638E-03  0.485091E-04 -0.209706E-05
 -0.255292E-03  0.306037E-04 -0.256540E-05
 -0.257725E-03  0.868766E-05 -0.369186E-05
 -0.243310E-03 -0.139667E-04 -0.494328E-05
 -0.214711E-03 -0.340367E-04 -0.549004E-05
 -0.177164E-03 -0.486415E-04 -0.488069E-05
 -0.136910E-03 -0.559280E-04 -0.337371E-05
 -0.994051E-04 -0.556904E-04 -0.164660E-05
 -0.681213E-04 -0.494835E-04 -0.278019E-06
 -0.443029E-04 -0.399311E-04  0.514358E-06
 -0.274952E-04 -0.296469E-04  0.808375E-06
 -0.163595E-04 -0.204556E-04  0.793820E-06
 -0.936093E-05 -0.132089E-04  0.641986E-06
 -0.515986E-05 -0.801603E-05  0.461506E-06
 -0.274297E-05 -0.458189E-05  0.304606E-06
 -0.140897E-05 -0.247103E-05  0.187677E-06
 -0.702128E-06 -0.126132E-05  0.109020E-06
 -0.341764E-06 -0.613388E-06  0.601289E-07
 -0.164035E-06 -0.287642E-06  0.316604E-07
 -0.784775E-07 -0.132618E-06  0.159796E-07
 -0.378084E-07 -0.617554E-07  0.774897E-08
 -0.184918E-07 -0.299318E-07  0.361206E-08
 -0.265405E-06  0.572474E-06  0.242538E-08
 -0.531856E-06  0.107649E-05  0.564729E-08
 -0.104876E-05  0.197796E-05  0.114351E-07
 -0.202672E-05  0.353268E-05  0.197181E-07
 -0.383116E-05  0.611457E-05  0.263739E-07
 -0.707968E-05  0.102416E-04  0.165556E-07
 -0.127810E-04  0.165844E-04 -0.458222E-07
 -0.224979E-04  0.259209E-04 -0.227574E-06
 -0.384605E-04  0.389642E-04 -0.620136E-06
 -0.634660E-04  0.559727E-04 -0.129663E-05
 -0.100333E-03  0.761083E-04 -0.222604E-05
 -0.150747E-03  0.967281E-04 -0.319099E-05
 -0.213647E-03  0.113136E-03 -0.381927E-05
 -0.283850E-03  0.119464E-03 -0.382571E-05
 -0.351943E-03  0.110850E-03 -0.338077E-05
 -0.406117E-03  0.859513E-04 -0.324693E-05
 -0.435519E-03  0.480633E-04 -0.430083E-05
 -0.433767E-03  0.393151E-05 -0.662121E-05
 -0.401144E-03 -0.387868E-04 -0.905917E-05
 -0.344591E-03 -0.735675E-04 -0.999922E-05
 -0.275382E-03 -0.959346E-04 -0.869941E-05
 -0.205394E-03 -0.103979E-03 -0.582120E-05
 -0.143688E-03 -0.988317E-04 -0.271677E-05
 -0.948978E-04 -0.843642E-04 -0.403409E-06
 -0.596076E-04 -0.656827E-04  0.839701E-06
 -0.358684E-04 -0.472362E-04  0.124382E-05
 -0.208006E-04 -0.317078E-04  0.117607E-05
 -0.116694E-04 -0.200164E-04  0.923742E-06
 -0.634378E-05 -0.119340E-04  0.649025E-06
 -0.334312E-05 -0.673142E-05  0.420616E-06
 -0.170908E-05 -0.359473E-05  0.255200E-06
 -0.849661E-06 -0.182068E-05  0.146204E-06
 -0.412888E-06 -0.878862E-06  0.795867E-07
 -0.197652E-06 -0.408373E-06  0.413838E-07
 -0.940802E-07 -0.185777E-06  0.206441E-07
 -0.449363E-07 -0.847955E-07  0.990721E-08
 -0.217014E-07 -0.399876E-07  0.457790E-08
 -0.317271E-06  0.790166E-06  0.310405E-08
 -0.645685E-06  0.150793E-05  0.710637E-08
 -0.129281E-05  0.281063E-05  0.140803E-07
 -0.253981E-05  0.509661E-05  0.231834E-07
 -0.489297E-05  0.897666E-05  0.268477E-07
 -0.924678E-05  0.153531E-04  0.682079E-10
 -0.171345E-04  0.254926E-04 -0.116542E-06
 -0.310520E-04  0.410159E-04 -0.431829E-06
 -0.547388E-04  0.636329E-04 -0.109322E-05
 -0.931244E-04  0.943659E-04 -0.221534E-05
 -0.151479E-03  0.132109E-03 -0.374059E-05
 -0.233362E-03  0.171879E-03 -0.531113E-05
 -0.337535E-03  0.203995E-03 -0.633020E-05
 -0.455078E-03  0.215877E-03 -0.635941E-05
 -0.568846E-03  0.197063E-03 -0.570873E-05
 -0.656926E-03  0.145206E-03 -0.563603E-05
 -0.699529E-03  0.687528E-04 -0.752908E-05
 -0.686302E-03 -0.162834E-04 -0.113880E-04
 -0.620445E-03 -0.931413E-04 -0.151857E-04
 -0.517515E-03 -0.149690E-03 -0.162744E-04
 -0.399439E-03 -0.180051E-03 -0.136603E-04
 -0.286720E-03 -0.184141E-03 -0.871478E-05
 -0.192755E-03 -0.166893E-03 -0.375716E-05
 -0.122418E-03 -0.136704E-03 -0.316060E-06
 -0.741460E-04 -0.102607E-03  0.136941E-05
 -0.432190E-04 -0.714430E-04  0.181151E-05
 -0.244222E-04 -0.466427E-04  0.162643E-05
 -0.134390E-04 -0.287792E-04  0.123541E-05
 -0.721271E-05 -0.168548E-04  0.848181E-06
 -0.377419E-05 -0.938145E-05  0.540591E-06
 -0.192436E-05 -0.496204E-05  0.323696E-06
 -0.956906E-06 -0.249544E-05  0.183288E-06
 -0.465656E-06 -0.119736E-05  0.986503E-07
 -0.223111E-06 -0.552679E-06  0.507249E-07
 -0.106077E-06 -0.249078E-06  0.250327E-07
 -0.504464E-07 -0.112071E-06  0.118955E-07
 -0.241628E-07 -0.517675E-07  0.545039E-08
 -0.355508E-06  0.104719E-05  0.366474E-08
 -0.733297E-06  0.202413E-05  0.826412E-08
 -0.148882E-05  0.382202E-05  0.159892E-07
 -0.297129E-05  0.703176E-05  0.248263E-07
 -0.583278E-05  0.126021E-04  0.226605E-07
 -0.112741E-04  0.220181E-04 -0.285254E-07
 -0.214451E-04  0.375076E-04 -0.217835E-06
 -0.399975E-04  0.621368E-04 -0.708226E-06
 -0.726323E-04  0.994415E-04 -0.172132E-05
 -0.127182E-03  0.152021E-03 -0.343403E-05
 -0.212434E-03  0.218672E-03 -0.577827E-05
 -0.334897E-03  0.290663E-03 -0.825878E-05
 -0.493556E-03  0.349663E-03 -0.100323E-04
 -0.674550E-03  0.370973E-03 -0.104429E-04
 -0.849591E-03  0.333713E-03 -0.983904E-05
 -0.981696E-03  0.233652E-03 -0.989657E-05
 -0.103781E-02  0.892906E-04 -0.125058E-04
 -0.100258E-02 -0.652391E-04 -0.175966E-04
 -0.885401E-03 -0.195948E-03 -0.222455E-04
 -0.716351E-03 -0.281588E-03 -0.228140E-04
 -0.533338E-03 -0.316438E-03 -0.182465E-04
 -0.367956E-03 -0.306605E-03 -0.108644E-04
 -0.237434E-03 -0.265360E-03 -0.404000E-05
 -0.144881E-03 -0.208784E-03  0.309553E-06
 -0.845802E-04 -0.151266E-03  0.217672E-05
 -0.477635E-04 -0.102126E-03  0.247187E-05
 -0.263193E-04 -0.649469E-04  0.207831E-05
 -0.142246E-04 -0.392209E-04  0.151998E-05
 -0.755086E-05 -0.225880E-04  0.101989E-05
 -0.393183E-05 -0.124168E-04  0.640694E-06
 -0.200429E-05 -0.650929E-05  0.379677E-06
 -0.999429E-06 -0.325291E-05  0.213047E-06
 -0.488331E-06 -0.155315E-05  0.113629E-06
 -0.234842E-06 -0.713435E-06  0.578766E-07
 -0.111863E-06 -0.319446E-06  0.282919E-07
 -0.531404E-07 -0.142293E-06  0.133247E-07
 -0.253330E-07 -0.647361E-07  0.605751E-08
 -0.368789E-06  0.132910E-05  0.395351E-08
 -0.769509E-06  0.259717E-05  0.879309E-08
 -0.158191E-05  0.496100E-05  0.165824E-07
 -0.320359E-05  0.925108E-05  0.239555E-07
 -0.640202E-05  0.168574E-04  0.140568E-07
 -0.126433E-04  0.300659E-04 -0.643726E-07
 -0.246507E-04  0.524923E-04 -0.330708E-06
 -0.472168E-04  0.893892E-04 -0.100400E-05
 -0.880794E-04  0.147195E-03 -0.238648E-05
 -0.158237E-03  0.231232E-03 -0.473536E-05
 -0.270539E-03  0.340644E-03 -0.801365E-05
 -0.435251E-03  0.461467E-03 -0.116591E-04
 -0.652304E-03  0.562198E-03 -0.146408E-04
 -0.902747E-03  0.598799E-03 -0.160213E-04
 -0.114532E-02  0.532964E-03 -0.159233E-04
 -0.132460E-02  0.356722E-03 -0.160994E-04
 -0.139118E-02  0.105323E-03 -0.187806E-04
 -0.132447E-02 -0.155983E-03 -0.239625E-04
 -0.114357E-02 -0.364060E-03 -0.281966E-04
 -0.898167E-03 -0.484195E-03 -0.273090E-04
 -0.645515E-03 -0.514599E-03 -0.204907E-04
 -0.428352E-03 -0.475124E-03 -0.110028E-04
 -0.265499E-03 -0.394016E-03 -0.298685E-05
 -0.155772E-03 -0.298614E-03  0.159393E-05
 -0.877273E-04 -0.209434E-03  0.317241E-05
 -0.480459E-04 -0.137521E-03  0.308692E-05
 -0.258525E-04 -0.854445E-04  0.241477E-05
 -0.137480E-04 -0.506354E-04  0.169691E-05
 -0.723407E-05 -0.287378E-04  0.111421E-05
 -0.375764E-05 -0.156267E-04  0.691882E-06
 -0.191977E-05 -0.812887E-05  0.407071E-06
 -0.962151E-06 -0.404039E-05  0.227007E-06
 -0.473025E-06 -0.192155E-05  0.120266E-06
 -0.228781E-06 -0.879537E-06  0.608000E-07
 -0.109405E-06 -0.392075E-06  0.294861E-07
 -0.520329E-07 -0.173440E-06  0.137798E-07
 -0.247514E-07 -0.780525E-07  0.622112E-08
 -0.347340E-06  0.161210E-05  0.383064E-08
 -0.731697E-06  0.317857E-05  0.841495E-08
 -0.152032E-05  0.613183E-05  0.154608E-07
 -0.311882E-05  0.115713E-04  0.205478E-07
 -0.633266E-05  0.214031E-04  0.362017E-08
 -0.127478E-04  0.388888E-04 -0.951593E-07
 -0.253991E-04  0.694006E-04 -0.414864E-06
 -0.497787E-04  0.121059E-03 -0.121233E-05
 -0.949930E-04  0.204255E-03 -0.284917E-05
 -0.174345E-03  0.328262E-03 -0.565834E-05
 -0.303920E-03  0.493302E-03 -0.968339E-05
 -0.497404E-03  0.679182E-03 -0.144264E-04
 -0.756357E-03  0.837156E-03 -0.188287E-04
 -0.105859E-02  0.896438E-03 -0.216772E-04
 -0.135242E-02  0.793213E-03 -0.225554E-04
 -0.156640E-02  0.512745E-03 -0.227997E-04
 -0.163661E-02  0.113963E-03 -0.247041E-04
 -0.153859E-02 -0.291861E-03 -0.285388E-04
 -0.130200E-02 -0.598746E-03 -0.309820E-04
 -0.995520E-03 -0.754471E-03 -0.280441E-04
 -0.692837E-03 -0.767095E-03 -0.194213E-04
 -0.443659E-03 -0.679827E-03 -0.894305E-05
 -0.264992E-03 -0.543096E-03 -0.904785E-06
 -0.149935E-03 -0.398266E-03  0.308844E-05
 -0.816649E-04 -0.271564E-03  0.397892E-05
 -0.434680E-04 -0.174159E-03  0.340681E-05
 -0.228831E-04 -0.106138E-03  0.248973E-05
 -0.119974E-04 -0.619387E-04  0.168463E-05
 -0.627136E-05 -0.347401E-04  0.108560E-05
 -0.325681E-05 -0.187262E-04  0.668609E-06
 -0.167095E-05 -0.968076E-05  0.391799E-06
 -0.843080E-06 -0.479104E-05  0.217735E-06
 -0.417569E-06 -0.227162E-05  0.114848E-06
 -0.203322E-06 -0.103714E-05  0.577406E-07
 -0.977129E-07 -0.460959E-06  0.278282E-07
 -0.465856E-07 -0.202968E-06  0.129230E-07
 -0.221494E-07 -0.906528E-07  0.580055E-08
 -0.286214E-06  0.186546E-05  0.321834E-08
 -0.607401E-06  0.370369E-05  0.699672E-08
 -0.127283E-05  0.720119E-05  0.125503E-07
 -0.263857E-05  0.137216E-04  0.152893E-07
 -0.542757E-05  0.256941E-04 -0.446852E-08
 -0.110966E-04  0.474014E-04 -0.104798E-06
 -0.224959E-04  0.861060E-04 -0.420714E-06
 -0.448915E-04  0.153098E-03 -0.120340E-05
 -0.871892E-04  0.263263E-03 -0.281392E-05
 -0.162678E-03  0.430596E-03 -0.561057E-05
 -0.287874E-03  0.657147E-03 -0.972732E-05
 -0.477556E-03  0.916584E-03 -0.148488E-04
 -0.734786E-03  0.114126E-02 -0.200977E-04
 -0.103816E-02  0.122936E-02 -0.241549E-04
 -0.133451E-02  0.108574E-02 -0.260091E-04
 -0.154846E-02  0.685699E-03 -0.262591E-04
 -0.161205E-02  0.115911E-03 -0.269399E-04
 -0.150073E-02 -0.455769E-03 -0.286877E-04